# vtk DataFile Version 3.0
vtk output
ASCII
DATASET POLYDATA
POINTS 1529 float
-0.10946 3.0868 -0.052196
-0.094231 3.0815 -0.054312
-0.037783 3.0942 -0.053337
0.096287 3.0872 -0.052461
0.10194 3.0788 -0.051388
0.17849 3.0883 -0.051284
-0.18107 3.1141 -0.050354
-0.10396 3.1455 -0.050644
-0.073304 3.125 -0.051189
-0.044429 3.1066 -0.051894
0.012767 3.1131 -0.051483
0.08968 3.1189 -0.050173
0.13976 3.1078 -0.05149
0.19352 3.1436 -0.052106
-0.10866 3.1563 -0.052803
-0.097792 3.1749 -0.050544
-0.031969 3.182 -0.050708
0.032077 3.175 -0.051706
0.053004 3.1787 -0.050717
0.10887 3.1561 -0.050371
0.19259 3.1526 -0.050372
0.28863 3.1787 -0.050848
0.64804 3.1736 -0.050978
0.6516 3.1734 -0.050978
-0.20672 3.2407 -0.053227
-0.17566 3.2388 -0.051901
-0.13749 3.2486 -0.052019
-0.063041 3.2419 -0.052171
-0.0029739 3.2428 -0.051642
0.0043149 3.2425 -0.051642
0.077518 3.2445 -0.050926
0.24575 3.2219 -0.051498
0.26762 3.2386 -0.051838
0.30716 3.23 -0.051643
0.37681 3.2186 -0.051582
0.422 3.2389 -0.051376
0.45658 3.2237 -0.051643
0.69982 3.2455 -0.050182
0.73637 3.2434 -0.050552
0.75376 3.2321 -0.052221
0.8909 3.2378 -0.050503
0.90569 3.2147 -0.050189
1.5172 3.2439 -0.052773
-0.25847 3.282 -0.052804
-0.23154 3.2798 -0.053215
-0.17109 3.2799 -0.052815
-0.1344 3.283 -0.051739
-0.083909 3.262 -0.052667
-0.005709 3.2729 -0.050492
0.028992 3.2709 -0.050385
0.063384 3.2816 -0.053253
0.13163 3.2832 -0.051204
0.17277 3.2758 -0.050267
0.22657 3.2543 -0.05186
0.26479 3.2589 -0.05198
0.32848 3.2896 -0.051931
0.35842 3.2818 -0.050431
0.43172 3.2677 -0.050491
0.48508 3.2589 -0.050229
0.53599 3.2974 -0.052679
0.563 3.2732 -0.050615
0.62542 3.2935 -0.051168
0.68635 3.2891 -0.051297
-0.26284 3.3297 -0.055203
-0.22011 3.3272 -0.052954
-0.16212 3.3231 -0.052254
-0.13457 3.3237 -0.053339
-0.031195 3.3326 -0.05211
0.039411 3.3299 -0.053188
0.06614 3.3251 -0.053184
0.14188 3.3209 -0.053404
0.1584 3.3242 -0.053728
0.23064 3.3335 -0.052173
0.27872 3.3287 -0.052944
0.31208 3.3202 -0.053511
0.46956 3.3472 -0.051801
0.52252 3.336 -0.051745
0.67895 3.3197 -0.052313
0.79868 3.3094 -0.051024
0.80251 3.3092 -0.051024
0.96752 3.3383 -0.051721
1.0475 3.3469 -0.051622
1.0515 3.3467 -0.051622
1.1535 3.3424 -0.051622
1.2984 3.3493 -0.050342
1.3089 3.3488 -0.050342
1.6943 3.3386 -0.051143
1.7049 3.3441 -0.052385
-0.31501 3.3768 -0.052529
-0.26366 3.3546 -0.054094
-0.21235 3.3817 -0.052397
-0.1835 3.3825 -0.052966
-0.12032 3.386 -0.051578
-0.0795 3.3836 -0.056115
-0.030447 3.3787 -0.053345
0.022039 3.3777 -0.054643
0.086371 3.3839 -0.054862
0.10211 3.3747 -0.051723
0.18696 3.3779 -0.051127
0.21449 3.3717 -0.052045
0.26419 3.3881 -0.051714
0.32165 3.3721 -0.052474
0.38985 3.3901 -0.051709
0.42591 3.3862 -0.052137
0.46123 3.3825 -0.051082
0.54397 3.3778 -0.050682
0.57455 3.3754 -0.050858
0.62475 3.3776 -0.050359
0.65241 3.3765 -0.050358
0.74142 3.3979 -0.050169
0.82135 3.3944 -0.050629
0.89053 3.3915 -0.050485
0.91933 3.3903 -0.050397
0.98512 3.3562 -0.052774
1.0415 3.3886 -0.050744
1.2974 3.3678 -0.051506
1.3063 3.3783 -0.051349
1.4831 3.3839 -0.050776
1.7095 3.357 -0.050497
-0.32615 3.4239 -0.05442
-0.26973 3.425 -0.051161
-0.23023 3.4244 -0.053465
-0.17245 3.4267 -0.051881
-0.11496 3.4323 -0.057781
-0.080401 3.4213 -0.056207
-0.01281 3.427 -0.055096
0.02067 3.4238 -0.055617
0.067712 3.4149 -0.054531
0.14462 3.4339 -0.05198
0.17686 3.435 -0.052848
0.2109 3.4251 -0.052371
0.25806 3.4179 -0.051218
0.31796 3.4182 -0.052623
0.38761 3.4141 -0.050795
0.43569 3.4274 -0.052543
0.49445 3.433 -0.051729
0.50837 3.4243 -0.05227
0.63001 3.4112 -0.050305
0.72729 3.4387 -0.051896
0.78519 3.448 -0.051066
0.8225 3.4464 -0.051172
0.88634 3.4438 -0.050992
0.92246 3.4031 -0.052825
1.0319 3.4289 -0.050973
1.0744 3.4288 -0.051448
1.131 3.4412 -0.052451
1.1722 3.4418 -0.052837
1.2406 3.4288 -0.051123
1.2956 3.4165 -0.051904
1.3024 3.4165 -0.051703
1.4859 3.4187 -0.051842
-0.35036 3.4826 -0.052686
-0.33222 3.4643 -0.05604
-0.26724 3.4864 -0.051428
-0.21865 3.4779 -0.054921
-0.18461 3.4684 -0.05238
-0.12057 3.4718 -0.053275
-0.063279 3.4781 -0.054249
-0.031242 3.4788 -0.055268
0.012836 3.4668 -0.05483
0.087508 3.478 -0.05191
0.12235 3.4773 -0.052431
0.17677 3.4796 -0.052697
0.22792 3.4851 -0.053385
0.2709 3.4858 -0.055136
0.31953 3.4722 -0.053176
0.39255 3.4867 -0.051527
0.42401 3.4737 -0.05145
0.48492 3.4756 -0.051829
0.50554 3.4598 -0.050767
0.57451 3.4788 -0.052348
0.62156 3.4727 -0.052924
0.67139 3.4721 -0.051851
0.71542 3.4747 -0.052831
0.77267 3.4831 -0.052528
0.82558 3.4667 -0.052647
0.88164 3.4874 -0.053385
0.92914 3.4919 -0.052624
0.98307 3.4891 -0.051884
1.0336 3.4764 -0.052872
1.0645 3.4746 -0.053973
1.1381 3.4777 -0.052866
1.1731 3.4749 -0.052118
1.2476 3.4568 -0.05124
1.2943 3.4729 -0.05226
1.3091 3.4821 -0.05119
1.3675 3.491 -0.053125
1.425 3.491 -0.050078
1.4562 3.4824 -0.050758
-0.35533 3.5305 -0.06301
-0.33138 3.5363 -0.059282
-0.27064 3.5331 -0.055461
-0.23177 3.5322 -0.056773
-0.15855 3.539 -0.05495
-0.12745 3.5277 -0.054967
-0.089527 3.5285 -0.05412
-0.018707 3.528 -0.056307
0.016744 3.5238 -0.059497
0.07064 3.5213 -0.053719
0.11968 3.5205 -0.0526
0.18311 3.517 -0.056595
0.23084 3.5286 -0.056248
0.27018 3.5326 -0.055382
0.31111 3.5258 -0.052714
0.39079 3.5303 -0.053313
0.42839 3.533 -0.053165
0.46024 3.5221 -0.052848
0.58381 3.5302 -0.053175
0.63195 3.5263 -0.055325
0.67602 3.5204 -0.052513
0.73507 3.5274 -0.051758
0.77419 3.5264 -0.053592
0.82529 3.5297 -0.051922
0.87479 3.5235 -0.053438
0.92334 3.5223 -0.052369
0.98022 3.5259 -0.052113
1.0348 3.5271 -0.051397
1.0716 3.5264 -0.051626
1.1264 3.5132 -0.050573
1.1712 3.5252 -0.052482
1.2991 3.5107 -0.051846
1.3397 3.5237 -0.05042
1.3757 3.5201 -0.052663
1.4211 3.5308 -0.051402
1.4566 3.5041 -0.053979
1.5315 3.5451 -0.050163
1.6229 3.541 -0.050403
-0.40307 3.597 -0.059814
-0.37162 3.576 -0.058983
-0.33673 3.5735 -0.057959
-0.27399 3.5777 -0.058299
-0.24178 3.5691 -0.057879
-0.16509 3.5751 -0.055051
-0.12884 3.5836 -0.05495
-0.085035 3.5792 -0.059994
-0.023763 3.5622 -0.056141
0.022461 3.566 -0.056678
0.08724 3.5759 -0.052949
0.11676 3.5882 -0.058779
0.18131 3.5715 -0.060101
0.2314 3.5748 -0.054975
0.27261 3.5726 -0.055453
0.3109 3.5795 -0.057108
0.38931 3.5693 -0.051813
0.42583 3.5819 -0.052074
0.45404 3.5764 -0.054301
0.53325 3.5803 -0.052217
0.5807 3.5746 -0.05165
0.62178 3.5663 -0.052166
0.67265 3.5592 -0.053272
0.71263 3.5855 -0.052408
0.77541 3.5767 -0.053579
0.82041 3.5698 -0.051563
0.87801 3.5707 -0.054057
0.91781 3.5755 -0.054206
0.95704 3.579 -0.053937
1.0282 3.5726 -0.053895
1.0745 3.5756 -0.052702
1.114 3.5785 -0.050821
1.1836 3.5701 -0.053259
1.2288 3.5741 -0.052657
1.2557 3.5861 -0.051443
1.3437 3.5633 -0.052148
1.3691 3.5656 -0.051252
1.418 3.5623 -0.052105
1.4584 3.5771 -0.0508
1.5459 3.5605 -0.052649
1.5765 3.5721 -0.052005
1.622 3.5723 -0.052828
-0.41397 3.6295 -0.05759
-0.36429 3.6146 -0.054274
-0.32029 3.6211 -0.058667
-0.27041 3.6132 -0.057408
-0.21264 3.641 -0.060324
-0.17643 3.6303 -0.060119
-0.12399 3.6324 -0.056282
-0.084524 3.6203 -0.057874
-0.025813 3.6159 -0.058535
0.019422 3.6216 -0.059563
0.06764 3.6323 -0.054856
0.11996 3.6286 -0.057086
0.17508 3.6264 -0.060327
0.22276 3.6271 -0.055679
0.2722 3.6373 -0.057646
0.32139 3.6247 -0.056744
0.37387 3.6289 -0.057945
0.43629 3.6142 -0.052579
0.48153 3.6217 -0.05798
0.51348 3.6169 -0.060172
0.57271 3.6271 -0.051112
0.61467 3.629 -0.053867
0.68473 3.6239 -0.054117
0.72461 3.624 -0.054616
0.77435 3.6118 -0.052429
0.82076 3.6185 -0.051205
0.87862 3.6166 -0.051695
0.92803 3.6114 -0.052392
0.98984 3.6245 -0.05458
1.0171 3.6224 -0.052376
1.0749 3.6268 -0.053602
1.1111 3.6226 -0.052046
1.1844 3.6106 -0.052524
1.2292 3.6115 -0.053327
1.2765 3.619 -0.052211
1.3088 3.6321 -0.051539
1.3566 3.6249 -0.05302
1.5447 3.6061 -0.051379
1.5983 3.6039 -0.050797
1.6283 3.6298 -0.052187
1.7415 3.6469 -0.053661
-0.45285 3.6903 -0.064818
-0.42776 3.6674 -0.057734
-0.38168 3.6639 -0.056172
-0.33114 3.6602 -0.06119
-0.27183 3.6859 -0.065918
-0.21156 3.687 -0.059439
-0.17963 3.6726 -0.058912
-0.11126 3.6772 -0.05863
-0.09199 3.672 -0.064413
-0.011177 3.6717 -0.063008
0.0094257 3.6663 -0.057768
0.077372 3.6701 -0.057428
0.13069 3.6713 -0.055048
0.17476 3.674 -0.05636
0.22208 3.6716 -0.054639
0.2732 3.6764 -0.055703
0.32909 3.6737 -0.055816
0.36501 3.6719 -0.060861
0.42729 3.6862 -0.051755
0.49057 3.6706 -0.056568
0.5198 3.6781 -0.056064
0.62477 3.6792 -0.057864
0.67993 3.6725 -0.053095
0.72736 3.672 -0.053575
0.7777 3.6715 -0.051346
0.8093 3.6664 -0.051744
0.86949 3.6743 -0.05603
0.93415 3.6817 -0.054791
0.96604 3.6793 -0.053819
1.0213 3.6703 -0.052155
1.0722 3.6667 -0.052301
1.1499 3.6891 -0.051688
1.1674 3.6778 -0.05207
1.2306 3.6691 -0.05149
1.3296 3.687 -0.05135
1.3764 3.6929 -0.05044
1.4372 3.6937 -0.050136
1.4842 3.6917 -0.050134
1.5411 3.6893 -0.050133
1.5579 3.6838 -0.050656
1.6188 3.6761 -0.054343
1.6958 3.6828 -0.05475
1.7235 3.6923 -0.052516
1.7786 3.6898 -0.053655
1.8066 3.6895 -0.054041
-0.46485 3.7145 -0.059524
-0.43588 3.7198 -0.058669
-0.36606 3.7195 -0.061859
-0.32973 3.7173 -0.06307
-0.27209 3.7335 -0.061906
-0.23024 3.7335 -0.060821
-0.19241 3.7132 -0.06129
-0.11852 3.729 -0.058053
-0.079236 3.726 -0.066035
-0.019658 3.7148 -0.057287
0.016979 3.7272 -0.06147
0.066935 3.7236 -0.057072
0.12578 3.7237 -0.058909
0.17698 3.7255 -0.055849
0.22578 3.7359 -0.05591
0.27021 3.7191 -0.053475
0.33266 3.7223 -0.054929
0.35743 3.7144 -0.056048
0.42509 3.73 -0.052534
0.47766 3.7177 -0.053137
0.53324 3.7339 -0.05712
0.56876 3.736 -0.056971
0.63015 3.7237 -0.057772
0.66626 3.723 -0.057433
0.72062 3.7157 -0.053502
0.77462 3.7246 -0.052621
0.83099 3.7193 -0.05172
0.86516 3.7175 -0.058733
0.93249 3.7396 -0.055261
0.97727 3.7399 -0.059409
1.027 3.7339 -0.054482
1.0735 3.7284 -0.052923
1.1413 3.7112 -0.050722
1.1632 3.7307 -0.054866
1.2372 3.7171 -0.052227
1.2843 3.7231 -0.052859
1.3301 3.7244 -0.053303
1.3735 3.7354 -0.054877
1.4091 3.7317 -0.05429
1.4807 3.731 -0.05338
1.5184 3.7386 -0.052813
1.5761 3.7232 -0.052765
1.6239 3.7342 -0.054801
1.691 3.7185 -0.053533
[...]
POINT_DATA 1529
COLOR_SCALARS scalars 3
0.29412 0.3098 0.18039
0.27451 0.3098 0.13333
0.29412 0.31765 0.16863
0.29412 0.32157 0.1451
0.2902 0.31373 0.15294
0.30196 0.32549 0.16471
0.28627 0.31765 0.16078
0.28627 0.31765 0.14902
0.27843 0.31765 0.1451
0.28627 0.31765 0.14902
0.24706 0.30588 0.12941
0.28627 0.32549 0.13725
0.29804 0.32941 0.16863
0.28235 0.33333 0.16078
0.2902 0.32157 0.15294
0.29412 0.31765 0.16078
0.30196 0.31765 0.1451
0.29804 0.32157 0.090196
0.29412 0.32549 0.10196
0.29412 0.32157 0.15686
0.28627 0.33725 0.16863
0.27843 0.32941 0.1451
0.28627 0.33333 0.15294
0.2902 0.33333 0.14118
0.28235 0.31765 0.17255
0.28627 0.31765 0.1451
0.28627 0.32157 0.15294
0.29412 0.32549 0.14118
0.29804 0.32157 0.20392
0.29412 0.32549 0.16078
0.29412 0.32941 0.16078
0.2902 0.33725 0.17255
0.2902 0.33725 0.16078
0.29804 0.33333 0.17647
0.28235 0.33333 0.17255
0.2902 0.33725 0.16863
0.29804 0.34118 0.16863
0.30196 0.34118 0.094118
0.2902 0.3451 0.19608
0.2902 0.35294 0.16078
0.29804 0.34902 0.16078
0.29412 0.35294 0.15294
0.28627 0.33333 0.11765
0.2902 0.32157 0.17255
0.28235 0.32157 0.16471
0.28627 0.32157 0.1451
0.28627 0.32157 0.14902
0.29804 0.32157 0.13333
0.29412 0.32549 0.17255
0.2902 0.32941 0.1451
0.30196 0.32549 0.15686
0.29412 0.33333 0.16078
0.29412 0.33725 0.15686
0.29804 0.32549 0.17647
0.2902 0.33725 0.16078
0.29804 0.33333 0.16078
0.29804 0.34118 0.14118
0.30196 0.34118 0.16471
0.29804 0.34118 0.16471
0.28235 0.33333 0.18039
0.29412 0.3451 0.16471
0.29412 0.3451 0.17255
0.29412 0.3451 0.16078
0.27843 0.32549 0.16471
0.28235 0.31765 0.16863
0.2902 0.31765 0.15294
0.28627 0.32157 0.17647
0.33725 0.33333 0.15686
0.29804 0.32941 0.13333
0.29804 0.32941 0.15294
0.29804 0.33725 0.16078
0.29804 0.34118 0.14118
0.29412 0.32941 0.15294
0.29804 0.33725 0.16471
0.29412 0.33725 0.1451
0.2902 0.32941 0.1451
0.29412 0.34118 0.15294
0.29412 0.3451 0.17255
0.29412 0.3451 0.2
0.29804 0.3451 0.18824
0.29412 0.3451 0.12941
0.3098 0.3451 0.16471
0.30588 0.34902 0.16078
0.2902 0.33725 0.19216
0.2902 0.34118 0.14118
0.29412 0.34118 0.16471
0.28235 0.31765 0.086275
0.28235 0.31373 0.1098
0.28235 0.31373 0.15686
0.28627 0.32157 0.19216
0.26275 0.29804 0.21961
0.25882 0.29804 0.21961
0.24314 0.27451 0.21961
0.30196 0.32549 0.14902
0.30588 0.33333 0.13333
0.29804 0.32941 0.14118
0.29412 0.32549 0.18039
0.30196 0.33333 0.14902
0.2902 0.33725 0.16078
0.29412 0.33725 0.16863
0.29804 0.33725 0.18039
0.2902 0.3451 0.16863
0.29804 0.34118 0.17255
0.2902 0.33725 0.14902
0.2902 0.33333 0.17647
0.2902 0.3451 0.18431
0.29804 0.33725 0.18824
0.2902 0.3451 0.1451
0.28235 0.3451 0.16471
0.2902 0.34902 0.16863
0.28627 0.34902 0.15294
0.29804 0.35294 0.16471
0.2902 0.3451 0.13725
0.28235 0.34902 0.15686
0.2902 0.3451 0.17255
0.28627 0.33725 0.12157
0.27843 0.34118 0.1451
0.28235 0.33333 0.12941
0.27451 0.31373 0.094118
0.27843 0.2549 0.13725
0.38431 0.37255 0.37647
0.33333 0.31373 0.32941
0.41569 0.32157 0.36863
0.34118 0.31373 0.22353
0.28627 0.3098 0.15294
0.26275 0.30196 0.18039
0.27451 0.31373 0.14118
0.28235 0.31373 0.2
0.26667 0.31765 0.10588
0.28627 0.33725 0.15294
0.29412 0.33725 0.16471
0.29804 0.34118 0.16863
0.29412 0.3451 0.16471
0.29804 0.3451 0.14902
0.27843 0.33725 0.1451
0.29804 0.34902 0.18039
0.29804 0.34902 0.15294
0.2902 0.34902 0.16471
0.29804 0.3451 0.15686
0.29412 0.34118 0.18039
0.28627 0.3451 0.17255
0.29412 0.35294 0.16078
0.2902 0.35294 0.15294
0.29804 0.35294 0.16078
0.30196 0.35686 0.1451
0.29804 0.3451 0.17647
0.30196 0.34902 0.16863
0.29804 0.3451 0.18431
0.30196 0.3451 0.19216
0.29412 0.34118 0.16471
0.28627 0.33725 0.13725
0.52941 0.77647 0.69412
0.39608 0.37255 0.25098
0.53333 0.55294 0.43922
0.51765 0.56863 0.56078
0.52157 0.58431 0.57647
0.47843 0.54902 0.45882
0.46275 0.50196 0.39608
0.43529 0.44314 0.37647
0.32549 0.34902 0.35686
0.2902 0.35686 0.29804
0.22745 0.32157 0.25098
0.24706 0.2902 0.18824
0.2902 0.32941 0.13333
0.29804 0.34118 0.18431
0.29804 0.34118 0.14902
0.2902 0.3451 0.17647
0.29804 0.34902 0.17647
0.29804 0.34118 0.18039
0.2902 0.34902 0.16078
0.29412 0.3451 0.16471
0.2902 0.34902 0.16471
0.2902 0.3451 0.14902
0.29412 0.3451 0.16863
0.29412 0.34902 0.16471
0.28627 0.34902 0.19216
0.29804 0.35294 0.16471
0.29804 0.35294 0.19216
0.29804 0.34902 0.17647
0.29804 0.34902 0.16863
0.30196 0.35686 0.16863
0.30196 0.34902 0.18431
0.29412 0.3451 0.18824
0.30196 0.34902 0.17647
0.3098 0.34902 0.13333
0.30588 0.3451 0.14118
0.29412 0.3451 0.15686
0.29804 0.33333 0.10196
0.30196 0.33725 0.15686
0.50196 0.58824 0.53333
0.46667 0.4902 0.38039
0.46667 0.42745 0.23137
0.50196 0.50588 0.31765
0.35686 0.32549 0.090196
0.44706 0.39216 0.16863
0.40784 0.39608 0.21961
0.49804 0.56078 0.44706
0.37255 0.4 0.3451
0.44706 0.51765 0.49804
0.44706 0.47843 0.47843
0.28627 0.3098 0.1451
0.25882 0.3098 0.17255
0.2902 0.30588 0.2
0.30196 0.34118 0.14118
0.29412 0.3451 0.17255
0.29804 0.34902 0.17255
0.29412 0.3451 0.16863
0.29412 0.34902 0.16863
0.2902 0.34902 0.16471
0.2902 0.3451 0.15686
0.29412 0.35294 0.16863
0.29412 0.35294 0.16078
0.29804 0.34902 0.18039
0.30196 0.35294 0.16863
0.30196 0.35294 0.19216
0.30196 0.35294 0.19608
0.29412 0.3451 0.16471
0.29804 0.35294 0.16863
0.30196 0.35294 0.16078
0.30196 0.34902 0.19608
0.30196 0.34902 0.21569
0.2902 0.3451 0.12549
0.29412 0.34118 0.14902
0.28627 0.32941 0.14118
0.2902 0.33725 0.19216
0.28627 0.34118 0.11373
0.28235 0.32941 0.14118
0.29412 0.30196 0.12157
0.38824 0.4 0.21569
0.37647 0.38039 0.19608
0.3098 0.32157 0.13333
0.31765 0.3098 0.058824
0.24314 0.31373 0.13333
0.26275 0.3098 0.13725
0.3098 0.33333 0.18039
0.32549 0.36078 0.24314
0.42353 0.44706 0.2549
0.37647 0.35294 0.22745
0.52941 0.59216 0.47059
0.27843 0.34902 0.26667
0.41176 0.40784 0.42745
0.28627 0.32941 0.20784
0.26275 0.33333 0.19608
0.29412 0.35294 0.18039
0.2902 0.35294 0.16863
0.29804 0.3451 0.17255
0.29804 0.34118 0.18824
0.29412 0.35294 0.18431
0.2902 0.3451 0.18824
0.28627 0.3451 0.16863
0.2902 0.34902 0.17255
0.29412 0.35686 0.16471
0.29804 0.34902 0.2
0.29804 0.35686 0.16863
0.29804 0.35686 0.16471
0.30196 0.35294 0.17647
0.29412 0.34902 0.16471
0.29412 0.35294 0.17647
0.29412 0.3451 0.16471
0.30588 0.3451 0.17647
0.29804 0.3451 0.17255
0.29412 0.3451 0.17255
0.29412 0.33725 0.12157
0.29412 0.34118 0.14902
0.29412 0.33333 0.16863
0.29412 0.33333 0.13725
0.29412 0.34118 0.10588
0.28627 0.33725 0.13333
0.28235 0.32941 0.14902
0.27843 0.32941 0.15686
0.27843 0.32941 0.17647
0.26275 0.32549 0.18039
0.27059 0.32157 0.15294
0.2902 0.33333 0.16471
0.27451 0.32549 0.14902
0.28235 0.32549 0.16863
0.27059 0.32157 0.16863
0.3098 0.2902 0.078431
0.34902 0.35686 0.14902
0.25882 0.32941 0.18824
0.39216 0.39608 0.24706
0.4902 0.53333 0.45098
0.51373 0.6 0.49412
0.40392 0.49412 0.5098
0.33333 0.34118 0.21569
0.27451 0.33725 0.18824
0.29804 0.34902 0.16471
0.29804 0.3451 0.17255
0.29412 0.3451 0.2
0.29804 0.35294 0.19216
0.30196 0.34902 0.18431
0.2902 0.3451 0.16863
0.29412 0.34902 0.16078
0.29412 0.35294 0.16078
0.2902 0.34902 0.17647
0.30196 0.35686 0.17255
0.30196 0.35686 0.16863
0.29804 0.35294 0.18431
0.29804 0.35294 0.17647
0.29412 0.35294 0.15686
0.29804 0.34902 0.18431
0.29804 0.3451 0.16863
0.29804 0.34902 0.17255
0.29804 0.3451 0.16863
0.29412 0.3451 0.15294
0.29804 0.34118 0.1451
0.29804 0.34118 0.1451
0.30588 0.32941 0.20784
0.28627 0.32941 0.12157
0.27843 0.32157 0.098039
0.29804 0.32941 0.18824
0.30588 0.33333 0.16863
0.2902 0.33333 0.1451
0.28627 0.32941 0.16471
0.2902 0.32941 0.15686
0.30588 0.33725 0.18824
0.29804 0.32941 0.16078
0.29412 0.32941 0.17255
0.2902 0.32549 0.14118
0.28627 0.32549 0.13725
0.28235 0.33333 0.16471
0.2902 0.31373 0.15686
0.25882 0.32157 0.12157
0.30196 0.36078 0.21176
0.38431 0.35686 0.15294
0.48627 0.53333 0.41961
0.39608 0.50196 0.44314
0.30588 0.35686 0.2549
0.21961 0.3098 0.30588
0.30196 0.34902 0.16863
0.29804 0.34902 0.19216
0.29412 0.34902 0.18824
0.30196 0.34902 0.18431
0.30196 0.35294 0.18431
0.29412 0.35294 0.15294
0.30588 0.35294 0.15686
0.30588 0.35294 0.17647
0.30196 0.35686 0.18039
0.29804 0.35294 0.18039
0.30196 0.35686 0.16471
0.28627 0.34902 0.16471
0.30196 0.34902 0.17647
0.29804 0.34902 0.17647
0.29804 0.34902 0.17255
0.2902 0.34902 0.16078
0.2902 0.3451 0.15686
0.2902 0.34118 0.17255
0.30196 0.34902 0.12549
0.28235 0.3451 0.14902
0.28235 0.33725 0.13725
0.28627 0.34118 0.094118
0.27059 0.32549 0.13333
0.2902 0.32549 0.1451
0.27451 0.32157 0.14118
0.28235 0.32157 0.14118
0.29804 0.32549 0.16078
0.30196 0.32549 0.10196
0.30196 0.33333 0.15686
0.29412 0.33333 0.15686
0.29804 0.33725 0.16078
0.30588 0.33725 0.18431
0.29412 0.32941 0.18431
0.30196 0.33333 0.17647
0.29804 0.33333 0.16078
0.29412 0.34118 0.18824
0.29804 0.3451 0.15294
0.30196 0.34902 0.17255
0.2549 0.3451 0.16471
0.2902 0.3451 0.14118
0.23529 0.31765 0.12549
0.26275 0.27843 0.13725
0.54902 0.58039 0.39216
0.49412 0.56863 0.52549
0.43529 0.47451 0.51765
0.26275 0.31765 0.13333
0.29804 0.35294 0.18431
0.29804 0.34902 0.20392
0.30196 0.34902 0.18824
0.30196 0.35294 0.18824
0.29804 0.35294 0.17647
0.29412 0.35294 0.17255
0.30196 0.35294 0.1451
0.3098 0.35294 0.16471
0.30588 0.35294 0.18039
0.30196 0.34902 0.17255
0.30196 0.35294 0.14902
0.3098 0.35686 0.16471
0.30196 0.35294 0.16471
0.30588 0.34902 0.2
0.30588 0.3451 0.13725
0.29412 0.34902 0.16078
0.29412 0.34902 0.16471
0.29412 0.34902 0.14902
0.2902 0.34902 0.12941
0.2902 0.33725 0.14902
0.29412 0.3451 0.13725
0.2902 0.33333 0.15294
0.29412 0.33725 0.14118
0.2902 0.32941 0.17647
0.28235 0.32941 0.1451
0.27843 0.32157 0.13333
0.27843 0.31765 0.11765
0.34118 0.43137 0.39216
0.29412 0.34902 0.27843
0.29412 0.32157 0.17255
0.30196 0.32549 0.16471
0.29804 0.33333 0.14902
0.29412 0.33333 0.18039
0.30588 0.33725 0.18431
0.30196 0.33725 0.17647
0.30196 0.33725 0.16863
0.29804 0.33725 0.19216
0.30196 0.34902 0.18039
0.30196 0.35294 0.15294
0.30588 0.34902 0.18824
0.30196 0.35294 0.18431
0.29412 0.34902 0.12941
0.29412 0.3451 0.14118
0.27843 0.33725 0.10588
0.34902 0.42745 0.27843
0.46275 0.48235 0.41176
0.48627 0.50588 0.59608
0.27843 0.33333 0.38431
0.29412 0.34902 0.19216
0.29804 0.34902 0.20784
0.29804 0.3451 0.18039
0.30588 0.35294 0.18431
0.30196 0.35294 0.18039
0.29804 0.35294 0.17647
0.30196 0.35294 0.1451
0.30588 0.35686 0.18039
0.30196 0.35294 0.18039
0.30196 0.35294 0.16863
0.30196 0.35686 0.15686
0.30588 0.35686 0.17255
0.31373 0.35294 0.15294
0.30588 0.35294 0.15686
0.30196 0.3451 0.14118
0.29804 0.34902 0.15294
0.29412 0.3451 0.15686
0.2902 0.3451 0.16078
0.29412 0.34902 0.15686
0.2902 0.33725 0.15294
0.2902 0.34118 0.1451
0.29412 0.34118 0.16471
0.2902 0.33725 0.12941
0.29412 0.34118 0.1451
0.28627 0.33333 0.16078
0.29412 0.32941 0.15294
0.38824 0.47059 0.43922
0.29804 0.36078 0.32157
0.3098 0.29804 0.18039
0.2902 0.31765 0.12549
0.27843 0.31765 0.10196
0.29804 0.32941 0.17647
0.30196 0.33725 0.15686
0.30588 0.33725 0.17255
0.30196 0.33725 0.15686
0.30196 0.34118 0.18824
0.30588 0.35294 0.17255
0.30588 0.35294 0.16078
0.30196 0.35294 0.18039
0.30196 0.35294 0.16471
0.31373 0.35294 0.15294
0.30588 0.34902 0.17255
0.30196 0.3451 0.12941
0.29412 0.36078 0.21569
0.46667 0.6 0.61569
0.60784 0.60392 0.58039
0.39608 0.39608 0.51373
0.29412 0.3451 0.17255
0.29804 0.34902 0.18431
0.24314 0.2902 0.13333
0.25098 0.2902 0.12157
0.24706 0.29412 0.11373
0.24706 0.29804 0.098039
0.2549 0.2902 0.12549
0.24314 0.30588 0.098039
0.24314 0.30588 0.078431
0.25098 0.30196 0.11373
0.25098 0.29804 0.11765
0.25098 0.29804 0.11765
0.2549 0.30196 0.11373
0.2549 0.30588 0.12549
0.2549 0.3098 0.11765
0.25882 0.31373 0.12549
0.24706 0.30588 0.11373
0.24314 0.3098 0.10588
0.24706 0.3098 0.12549
0.24706 0.3098 0.12157
0.24706 0.31765 0.12157
0.25098 0.31373 0.1098
0.24314 0.31373 0.10588
0.26275 0.31765 0.12549
0.2549 0.31765 0.1098
0.2549 0.31373 0.098039
0.25098 0.31373 0.098039
0.24706 0.30588 0.10196
0.23922 0.30196 0.082353
0.24314 0.29804 0.094118
0.2549 0.30196 0.10588
0.2549 0.29804 0.12157
0.2549 0.30196 0.11373
0.26275 0.30588 0.11373
0.2549 0.3098 0.11373
0.25882 0.31373 0.11373
0.2549 0.3098 0.10588
0.25098 0.3098 0.11373
0.25098 0.3098 0.11373
0.24706 0.31373 0.10588
0.2549 0.31765 0.12941
0.25098 0.31765 0.11765
0.24706 0.31373 0.11765
0.25882 0.31765 0.10588
0.2549 0.31373 0.11373
0.2549 0.31373 0.10588
0.2549 0.31765 0.098039
0.26275 0.31373 0.11373
0.2549 0.3098 0.098039
0.23922 0.30588 0.078431
0.24314 0.30588 0.090196
0.2549 0.29804 0.12157
0.25882 0.30196 0.10588
0.25882 0.30196 0.1098
0.26275 0.30588 0.1098
0.26275 0.3098 0.1098
0.25882 0.31373 0.11373
0.2549 0.3098 0.12549
0.25882 0.3098 0.12157
0.2549 0.31765 0.11765
0.25882 0.31765 0.12549
0.25882 0.31765 0.12941
0.26667 0.32549 0.13333
0.25882 0.32549 0.13333
0.25882 0.32157 0.12941
0.25882 0.32549 0.12157
0.26275 0.32157 0.12941
0.26275 0.31765 0.11765
0.25882 0.31765 0.11373
0.25882 0.31373 0.10588
0.24706 0.30588 0.1098
0.2549 0.31373 0.10588
0.25098 0.3098 0.10588
0.23529 0.30588 0.090196
0.25098 0.29412 0.14118
0.25882 0.30196 0.12941
0.26275 0.30588 0.11765
0.25882 0.3098 0.13333
0.26275 0.3098 0.11765
0.26275 0.31373 0.12157
0.25882 0.31373 0.12549
0.26275 0.31373 0.12157
0.26275 0.32157 0.12549
0.26275 0.31765 0.13333
0.25882 0.32157 0.13333
0.27059 0.32549 0.1451
0.26275 0.32549 0.12157
0.26667 0.32549 0.12941
0.27059 0.32549 0.12549
0.27843 0.32941 0.11765
0.27059 0.32157 0.12941
0.27059 0.32157 0.11765
0.25882 0.31373 0.10588
0.24706 0.3098 0.1098
0.25098 0.3098 0.10196
0.24314 0.30196 0.070588
0.22353 0.27843 0.054902
0.26275 0.29412 0.16078
0.25882 0.30588 0.12549
0.26275 0.3098 0.12157
0.27059 0.30588 0.12549
0.27451 0.3098 0.12941
0.26275 0.3098 0.12549
0.26667 0.31373 0.11373
0.26275 0.3098 0.12549
0.27059 0.31765 0.13333
0.26275 0.32157 0.12549
0.25882 0.31765 0.12157
0.26275 0.32549 0.12157
0.27451 0.32941 0.14902
0.26667 0.32941 0.12157
0.26667 0.32941 0.13333
0.27451 0.32941 0.13725
0.27451 0.32549 0.12549
0.27059 0.32549 0.12941
0.27451 0.32157 0.12549
0.26275 0.31765 0.11765
0.26275 0.31765 0.11373
0.25098 0.30588 0.1098
0.22745 0.27843 0.066667
0.082353 0.10196 0.015686
0.011765 0.023529 0.0078431
0.27059 0.30588 0.12549
0.26275 0.30588 0.12941
0.25882 0.30588 0.12941
0.27059 0.3098 0.12157
0.27059 0.31373 0.12157
0.26667 0.31373 0.12941
0.27059 0.31765 0.12157
0.26275 0.31765 0.12941
0.26667 0.32157 0.12941
0.26275 0.31765 0.12549
0.26667 0.32549 0.1451
0.27059 0.32941 0.13725
0.27059 0.32941 0.14118
0.27059 0.32549 0.13725
0.27451 0.33333 0.12941
0.27451 0.33333 0.13333
0.27451 0.32941 0.13725
0.27451 0.32941 0.12549
0.27059 0.32157 0.12157
0.26667 0.32157 0.12157
0.27843 0.32549 0.11765
0.25882 0.31373 0.10196
0.2 0.24314 0.078431
0.027451 0.039216 0.0078431
0.015686 0.019608 0.019608
0.26275 0.30588 0.16471
0.26667 0.3098 0.12549
0.26667 0.30588 0.12157
0.26667 0.30588 0.12941
0.27451 0.3098 0.12941
0.27451 0.31765 0.12941
0.27059 0.31373 0.12941
0.26667 0.31765 0.13333
0.26667 0.31765 0.12941
0.27059 0.31765 0.13333
0.26667 0.32157 0.13333
0.27059 0.32549 0.13333
0.27059 0.32941 0.12941
0.27843 0.32941 0.13725
0.27059 0.32549 0.1451
0.27451 0.32941 0.13333
0.27843 0.33333 0.13725
0.27843 0.32941 0.12549
0.27451 0.32549 0.11765
0.27843 0.32549 0.12941
0.27843 0.32941 0.12549
0.27843 0.32157 0.11373
0.27059 0.31765 0.13333
0.27451 0.31373 0.11765
0.054902 0.062745 0.035294
0.043137 0.039216 0.066667
0.27843 0.30588 0.1451
0.26275 0.30588 0.13725
0.27451 0.3098 0.12941
0.27451 0.30588 0.12157
0.27843 0.31373 0.14902
0.27451 0.31373 0.15294
0.27451 0.31765 0.13333
0.26667 0.31765 0.14118
0.26667 0.32157 0.1451
0.27059 0.32549 0.13725
0.27059 0.32549 0.12941
0.26275 0.32549 0.12549
0.27059 0.32941 0.13333
0.27843 0.32941 0.12157
0.27451 0.33333 0.14118
0.27451 0.33333 0.14118
0.28235 0.33333 0.13333
0.27843 0.33725 0.13725
0.27843 0.32549 0.12157
0.28235 0.32941 0.13333
0.27843 0.32941 0.12941
0.28235 0.32549 0.12549
0.27843 0.32549 0.13333
0.26667 0.31373 0.12157
0.22745 0.2549 0.10196
0.27059 0.3098 0.10588
0.27451 0.3098 0.13333
0.27059 0.3098 0.13725
0.27451 0.31373 0.11765
0.27451 0.3098 0.13333
0.28235 0.31765 0.12941
0.27451 0.31765 0.12941
0.27059 0.32157 0.13725
0.27451 0.32549 0.16078
0.27843 0.32549 0.14902
0.27451 0.32549 0.13333
0.27059 0.32549 0.1451
0.27059 0.32549 0.14118
0.27451 0.32941 0.1451
0.26667 0.32549 0.14902
0.27843 0.33333 0.13333
0.27451 0.33725 0.1451
0.28235 0.33725 0.14118
0.26667 0.32549 0.12549
0.27843 0.32941 0.12941
0.2902 0.33333 0.12549
0.28235 0.32941 0.12157
0.27843 0.32941 0.12157
0.28235 0.32549 0.12941
0.27059 0.32549 0.12941
0.27451 0.31373 0.12941
0.22353 0.23529 0.094118
0.25882 0.30588 0.11765
0.26667 0.3098 0.12549
0.27059 0.31373 0.14118
0.27451 0.3098 0.1451
0.27059 0.3098 0.1451
0.28235 0.31765 0.12941
0.27059 0.31765 0.12157
0.27059 0.31765 0.13725
0.27059 0.32549 0.14118
0.28235 0.33333 0.14118
0.27843 0.32549 0.12549
0.27059 0.32549 0.16078
0.27843 0.32941 0.14902
0.27843 0.33333 0.12157
0.27451 0.33333 0.14902
0.27451 0.33333 0.12941
0.27843 0.34118 0.14118
0.28627 0.33725 0.14118
0.27451 0.33333 0.13333
0.27843 0.33333 0.13725
0.27843 0.32941 0.1451
0.28235 0.32941 0.12549
0.27843 0.32941 0.13333
0.28235 0.32941 0.13725
0.28235 0.32941 0.13333
0.27451 0.32157 0.12549
0.26667 0.3098 0.12941
0.25098 0.31765 0.098039
0.26667 0.3098 0.12941
0.25882 0.3098 0.14118
0.27059 0.3098 0.13333
0.27059 0.3098 0.14118
0.28235 0.31765 0.13725
0.28235 0.32157 0.1451
0.27843 0.32157 0.14118
0.28235 0.31765 0.15294
0.27843 0.32941 0.14118
0.28235 0.33333 0.13725
0.27843 0.32941 0.14118
0.27451 0.32941 0.15686
0.27451 0.32941 0.14118
0.28627 0.33333 0.14902
0.27843 0.33333 0.14902
0.28235 0.33725 0.14902
0.28627 0.34118 0.14902
0.27059 0.32941 0.1451
0.28627 0.33725 0.14902
0.28627 0.33725 0.14902
0.28235 0.33333 0.14902
0.27843 0.32941 0.14118
0.27843 0.32941 0.1451
0.28627 0.32941 0.13333
0.27843 0.32941 0.14118
0.27843 0.32157 0.13333
0.27843 0.31765 0.13725
0.27843 0.31373 0.13725
0.25098 0.31373 0.12157
0.26275 0.30588 0.14902
0.27059 0.30588 0.1451
0.27059 0.3098 0.12941
0.27451 0.31373 0.13725
0.28235 0.31373 0.13333
0.28235 0.31765 0.12157
0.28627 0.32157 0.15294
0.28627 0.32157 0.14902
0.2902 0.32941 0.14118
0.27843 0.32549 0.15294
0.27843 0.32549 0.1451
0.28235 0.33333 0.14118
0.27843 0.33333 0.16078
0.28235 0.33333 0.14118
0.28235 0.33725 0.15294
0.27843 0.33333 0.16078
0.28235 0.34118 0.15294
0.27451 0.33333 0.14902
0.28235 0.33725 0.14902
0.28627 0.34118 0.15294
0.28627 0.33725 0.16078
0.28627 0.33725 0.15294
0.28627 0.33333 0.1451
0.28235 0.33333 0.15294
0.28235 0.32941 0.14118
0.28235 0.32549 0.14902
0.27843 0.32549 0.13725
0.27451 0.32157 0.13725
0.27059 0.32157 0.1098
0.26275 0.31765 0.10588
0.27451 0.32157 0.10196
0.26667 0.31373 0.1451
0.27059 0.3098 0.14902
0.27059 0.3098 0.13725
0.28235 0.31373 0.1451
0.27843 0.31373 0.15294
0.28235 0.31765 0.13725
0.28627 0.32157 0.14902
0.28627 0.32157 0.13725
0.28627 0.32941 0.1451
0.28235 0.32941 0.13725
0.27843 0.32941 0.13333
0.27843 0.32549 0.15294
0.28235 0.33333 0.15294
0.28235 0.34118 0.16078
0.28627 0.33725 0.15686
0.28627 0.33725 0.15686
0.28627 0.34118 0.14902
0.27843 0.33725 0.14902
0.27451 0.33333 0.1451
0.29412 0.34118 0.16471
0.28627 0.3451 0.15294
0.28235 0.33725 0.14118
0.28627 0.33725 0.16078
0.28627 0.33725 0.14118
0.27843 0.33725 0.12941
0.27843 0.32941 0.1451
0.28627 0.32549 0.13725
0.27843 0.32941 0.13333
0.27843 0.32941 0.13333
0.27843 0.32549 0.12941
0.27451 0.32549 0.12549
0.26667 0.32549 0.12157
0.27451 0.3098 0.16471
0.27059 0.30588 0.1451
0.27451 0.31373 0.16471
0.27843 0.31765 0.14902
0.27451 0.31373 0.1451
0.28627 0.32157 0.13725
0.27843 0.31765 0.15686
0.28235 0.32549 0.13333
0.2902 0.32941 0.15294
0.28627 0.32549 0.1451
0.28235 0.32941 0.1451
0.28627 0.32941 0.13725
0.27843 0.33333 0.16078
0.2902 0.34118 0.15294
0.29412 0.34118 0.14902
0.29412 0.34118 0.17647
0.28627 0.3451 0.15686
0.28235 0.33725 0.16078
0.28235 0.33725 0.14118
0.28627 0.34118 0.16078
0.28627 0.34118 0.13333
0.28627 0.33725 0.14902
0.2902 0.33725 0.14902
0.28627 0.34118 0.14118
0.28627 0.33725 0.13333
0.28235 0.33333 0.14118
0.28235 0.33333 0.14902
0.28627 0.33333 0.14118